 Gaussian 16, Revision B.01,
 Gaussian 16:  ES64L-G16RevB.01 20-Dec-2017

 -----------------------------------------
 #p PBE1PBE/Def2TZVP Freq Opt pop=nbo6read
 -----------------------------------------

 ----------------------
 1_SiLi-0000 E=0.000000
 ----------------------
 Symbolic Z-matrix:
 Charge =  0 Multiplicity = 1

 SCF Done:  E(RPBE1PBE) =  -77.2550886940     A.U. after    9 cycles
 SCF Done:  E(RPBE1PBE) =  -77.2561220565     A.U. after    9 cycles
 SCF Done:  E(RPBE1PBE) =  -77.2561306392     A.U. after    6 cycles
 Optimization completed.
    -- Stationary point found.
 Normal termination of Gaussian 16 at Tue Oct 25 22:28:18 2022.

 ----------------------------------------------------------------------
 #P Geom=AllCheck Guess=TCheck SCRF=Check GenChk RPBE1PBE/def2TZVP Freq
 ----------------------------------------------------------------------

 Structure from the checkpoint file:  "/home/oyanez/Gaussian/coms/Gau-164818.chk"
 ----------------------
 1_SiLi-0000 E=0.000000
 ----------------------
 Charge =  0 Multiplicity = 1

                         Standard orientation:
 ---------------------------------------------------------------------
 Center     Atomic      Atomic             Coordinates (Angstroms)
 Number     Number       Type             X           Y           Z
 ---------------------------------------------------------------------
      1          6           0        0.000000    0.000000   -0.598488
      2          6           0       -0.000000    0.000000    0.598488
      3          1           0        0.000000    0.000000   -1.663262
      4          1           0       -0.000000    0.000000    1.663262
 ---------------------------------------------------------------------

 SCF Done:  E(RPBE1PBE) =  -77.2561306392     A.U. after    1 cycles

 The electronic state is 1-SGG.
 Alpha  occ. eigenvalues --  -10.23246 -10.22975  -0.77876  -0.58572  -0.51254
 Alpha  occ. eigenvalues --   -0.30973  -0.30973
 Alpha virt. eigenvalues --    0.03218   0.03218   0.07222   0.10244   0.14383
 Alpha virt. eigenvalues --    0.22704   0.22704   0.23215   0.33667   0.33667
 Alpha virt. eigenvalues --    0.36464   0.40591   0.56036   0.60073   0.60073

 Mulliken charges:
               1
     1  C   -0.185590
     2  C   -0.185590
     3  H    0.185590
     4  H    0.185590
 Sum of Mulliken charges =  -0.00000

 Dipole moment (field-independent basis, Debye):
    X=             -0.0000    Y=              0.0000    Z=              0.0000  Tot=              0.0000
 Quadrupole moment (field-independent basis, Debye-Ang):
   XX=            -13.6537   YY=            -13.6537   ZZ=             -6.7837
   XY=             -0.0000   XZ=             -0.0000   YZ=             -0.0000

  Exact polarizability:  14.599   0.000  14.599   0.000   0.000  30.290
 Approx polarizability:  18.041   0.000  18.041  -0.000  -0.000  51.059

 Summary of Natural Population Analysis:

                                     Natural Population
             Natural    ---------------------------------------------
  Atom No    Charge        Core      Valence    Rydberg      Total
 --------------------------------------------------------------------
    C  1   -0.23830      1.99999     4.22720    0.01111     6.23830
    C  2   -0.23830      1.99999     4.22720    0.01111     6.23830
    H  3    0.23830      0.00000     0.75995    0.00176     0.76170
    H  4    0.23830      0.00000     0.75995    0.00176     0.76170
 ====================================================================
 * Total *  0.00000      3.99998     9.97429    0.02573    14.00000

                      1                      2                      3
                     PIG                    PIG                    PIU
 Frequencies --    636.1867               636.1867               772.3082
 Red. masses --      1.5757                 1.5757                 1.0848
 Frc consts  --      0.3757                 0.3757                 0.3812
 IR Inten    --      0.0000                 0.0000               107.2002

                      4                      5                      6
                     PIU                    SGG                    SGU
 Frequencies --    772.3082              2084.9405              3426.8275
 Red. masses --      1.0848                 3.7790                 1.0848
 Frc consts  --      0.3812                 9.6786                 7.5057
 IR Inten    --    107.2002                 0.0000                94.3387

                      7
                     SGG
 Frequencies --   3528.0649
 Red. masses --      1.2331
 Frc consts  --      9.0434
 IR Inten    --      0.0000

 - Thermochemistry -
 -------------------
 Temperature   298.150 Kelvin.  Pressure   1.00000 Atm.
 Atom     1 has atomic number  6 and mass  12.00000

 Molecular mass:    26.01565 amu.
 Principal axes and moments of inertia in atomic units:
                           1         2         3
     Eigenvalues --     0.00000  50.61161  50.61161
           X           -0.00000   0.92302  -0.38476
           Y           -0.00000   0.38476   0.92302
           Z            1.00000   0.00000  -0.00000
 This molecule is a prolate symmetric top.
 Rotational symmetry number  2.
 Rotational temperature (Kelvin)      1.71134
 Rotational constant (GHZ):          35.658641
 Zero-point vibrational energy      70919.5 (Joules/Mol)
                                   16.95018 (Kcal/Mol)
 Vibrational temperatures:    915.33   915.33  1111.18  1111.18  2999.76
          (Kelvin)           4930.44  5076.10

 Zero-point correction=                           0.027012 (Hartree/Particle)
 Thermal correction to Energy=                    0.029828
 Thermal correction to Enthalpy=                  0.030773
 Thermal correction to Gibbs Free Energy=         0.008054
 Sum of electronic and zero-point Energies=            -77.229119
 Sum of electronic and thermal Energies=               -77.226302
 Sum of electronic and thermal Enthalpies=             -77.225358
 Sum of electronic and thermal Free Energies=          -77.248076

                     E (Thermal)             CV                S
                      KCal/Mol        Cal/Mol-Kelvin    Cal/Mol-Kelvin
 Total                   18.718              8.284             47.815
 Electronic               0.000              0.000              0.000
 Translational            0.889              2.981             35.704
 Rotational               0.592              1.987             10.864
 Vibrational             17.236              3.316              1.246

 Optimization completed.
    -- Stationary point found.
 Normal termination of Gaussian 16 at Tue Oct 25 22:28:23 2022.
