 Gaussian 16, Revision B.01,
 Gaussian 16:  ES64L-G16RevB.01 20-Dec-2017

 -----------------------------------------
 #p PBE1PBE/Def2TZVP Freq Opt pop=nbo6read
 -----------------------------------------

 ----------------------
 1_SiLi-0000 E=0.000000
 ----------------------
 Symbolic Z-matrix:
 Charge =  0 Multiplicity = 1

 SCF Done:  E(RPBE1PBE) =  -75.8015831600     A.U. after    9 cycles
 SCF Done:  E(RPBE1PBE) =  -75.8025672320     A.U. after    7 cycles
 Optimization completed.
    -- Stationary point found.
 Normal termination of Gaussian 16 at Tue Oct 25 22:28:17 2022.

 ----------------------------------------------------------------------
 #P Geom=AllCheck Guess=TCheck SCRF=Check GenChk RPBE1PBE/def2TZVP Freq
 ----------------------------------------------------------------------

 Structure from the checkpoint file:  "/home/oyanez/Gaussian/coms/Gau-203891.chk"
 ----------------------
 1_SiLi-0000 E=0.000000
 ----------------------
 Charge =  0 Multiplicity = 1

                         Standard orientation:
 ---------------------------------------------------------------------
 Center     Atomic      Atomic             Coordinates (Angstroms)
 Number     Number       Type             X           Y           Z
 ---------------------------------------------------------------------
      1          6           0       -0.000000    0.000000    0.623072
      2          6           0        0.000000    0.000000   -0.623072
 ---------------------------------------------------------------------

 SCF Done:  E(RPBE1PBE) =  -75.8025672320     A.U. after    1 cycles

 The electronic state is 1-SGG.
 Alpha  occ. eigenvalues --  -10.33873 -10.33707  -0.81509  -0.42105  -0.34200
 Alpha  occ. eigenvalues --   -0.34200
 Alpha virt. eigenvalues --   -0.25785   0.00690   0.00690   0.16417   0.17287
 Alpha virt. eigenvalues --    0.21721   0.21721   0.22911   0.31798   0.31798
 Alpha virt. eigenvalues --    0.33723   0.58100   0.58100   0.63179   0.76129

 Mulliken charges:
               1
     1  C   -0.000000
     2  C   -0.000000
 Sum of Mulliken charges =  -0.00000

 Dipole moment (field-independent basis, Debye):
    X=             -0.0000    Y=             -0.0000    Z=              0.0000  Tot=              0.0000
 Quadrupole moment (field-independent basis, Debye-Ang):
   XX=            -12.2493   YY=            -12.2493   ZZ=             -8.9192
   XY=             -0.0000   XZ=             -0.0000   YZ=              0.0000

  Exact polarizability:  44.402  -0.000  44.402  -0.000  -0.000  33.531
 Approx polarizability:  25.659  -0.000  25.659  -0.000   0.000 124.809

 Summary of Natural Population Analysis:

                                     Natural Population
             Natural    ---------------------------------------------
  Atom No    Charge        Core      Valence    Rydberg      Total
 --------------------------------------------------------------------
    C  1   -0.00000      2.00000     3.97817    0.02183     6.00000
    C  2   -0.00000      2.00000     3.97817    0.02183     6.00000
 ====================================================================
 * Total * -0.00000      3.99999     7.95634    0.04367    12.00000

                      1
                     SGG
 Frequencies --   1902.1463
 Red. masses --     12.0000
 Frc consts  --     25.5811
 IR Inten    --      0.0000

 - Thermochemistry -
 -------------------
 Temperature   298.150 Kelvin.  Pressure   1.00000 Atm.
 Atom     1 has atomic number  6 and mass  12.00000

 Molecular mass:    24.00000 amu.
 Principal axes and moments of inertia in atomic units:
                           1         2         3
     Eigenvalues --    -0.00000  33.27250  33.27250
           X           -0.00000  -0.70658   0.70764
           Y            0.00000   0.70764   0.70658
           Z            1.00000  -0.00000   0.00000
 This molecule is a prolate symmetric top.
 Rotational symmetry number  2.
 Rotational temperature (Kelvin)      2.60317
 Rotational constant (GHZ):          54.241229
 Zero-point vibrational energy      11377.4 (Joules/Mol)
                                    2.71925 (Kcal/Mol)
 Vibrational temperatures:   2736.76
          (Kelvin)

 Zero-point correction=                           0.004333 (Hartree/Particle)
 Thermal correction to Energy=                    0.006695
 Thermal correction to Enthalpy=                  0.007639
 Thermal correction to Gibbs Free Energy=        -0.013978
 Sum of electronic and zero-point Energies=            -75.798234
 Sum of electronic and thermal Energies=               -75.795872
 Sum of electronic and thermal Enthalpies=             -75.794928
 Sum of electronic and thermal Free Energies=          -75.816545

                     E (Thermal)             CV                S
                      KCal/Mol        Cal/Mol-Kelvin    Cal/Mol-Kelvin
 Total                    4.201              4.985             45.497
 Electronic               0.000              0.000              0.000
 Translational            0.889              2.981             35.464
 Rotational               0.592              1.987             10.031
 Vibrational              2.720              0.017              0.002

 Optimization completed.
    -- Stationary point found.
 Normal termination of Gaussian 16 at Tue Oct 25 22:28:21 2022.
