 Gaussian 16, Revision B.01,
 Gaussian 16:  ES64L-G16RevB.01 20-Dec-2017

 -----------------------------------------
 #p PBE1PBE/Def2TZVP Freq Opt pop=nbo6read
 -----------------------------------------

 ----------------------
 1_SiLi-0000 E=0.000000
 ----------------------
 Symbolic Z-matrix:
 Charge =  0 Multiplicity = 1

 SCF Done:  E(RPBE1PBE) =  -79.7489830288     A.U. after    9 cycles
 SCF Done:  E(RPBE1PBE) =  -79.7500909315     A.U. after    8 cycles
 SCF Done:  E(RPBE1PBE) =  -79.7501808130     A.U. after    7 cycles
 SCF Done:  E(RPBE1PBE) =  -79.7501839287     A.U. after    6 cycles
 Optimization completed.
    -- Stationary point found.
 Normal termination of Gaussian 16 at Tue Oct 25 22:28:27 2022.

 ----------------------------------------------------------------------
 #P Geom=AllCheck Guess=TCheck SCRF=Check GenChk RPBE1PBE/def2TZVP Freq
 ----------------------------------------------------------------------

 Structure from the checkpoint file:  "/home/oyanez/Gaussian/coms/Gau-203890.chk"
 ----------------------
 1_SiLi-0000 E=0.000000
 ----------------------
 Charge =  0 Multiplicity = 1

                         Standard orientation:
 ---------------------------------------------------------------------
 Center     Atomic      Atomic             Coordinates (Angstroms)
 Number     Number       Type             X           Y           Z
 ---------------------------------------------------------------------
      1          6           0       -0.759446    0.000000    0.000000
      2          6           0        0.759446   -0.000000   -0.000000
      3          1           0       -1.158353    1.017101   -0.015163
      4          1           0       -1.158352   -0.495420    0.888416
      5          1           0       -1.158350   -0.521683   -0.873254
      6          1           0        1.158352   -1.017101    0.015161
      7          1           0        1.158350    0.521682    0.873255
      8          1           0        1.158351    0.495423   -0.888415
 ---------------------------------------------------------------------

 SCF Done:  E(RPBE1PBE) =  -79.7501839287     A.U. after    1 cycles

 The electronic state is 1-A.
 Alpha  occ. eigenvalues --  -10.20677 -10.20652  -0.77578  -0.63262  -0.44749
 Alpha  occ. eigenvalues --   -0.44749  -0.38138  -0.35159  -0.35159
 Alpha virt. eigenvalues --    0.05247   0.09158   0.12125   0.12126   0.13546
 Alpha virt. eigenvalues --    0.13546   0.20256   0.20905   0.24912   0.24912
 Alpha virt. eigenvalues --    0.25540   0.25540   0.41071   0.43354   0.43784

 Mulliken charges:
               1
     1  C   -0.347708
     2  C   -0.347707
     3  H    0.115903
     4  H    0.115902
     5  H    0.115902
     6  H    0.115903
     7  H    0.115902
     8  H    0.115902
 Sum of Mulliken charges =   0.00000

 Dipole moment (field-independent basis, Debye):
    X=             -0.0000    Y=              0.0000    Z=             -0.0000  Tot=              0.0000
 Quadrupole moment (field-independent basis, Debye-Ang):
   XX=            -15.5862   YY=            -14.8431   ZZ=            -14.8431
   XY=             -0.0000   XZ=             -0.0000   YZ=             -0.0000

  Exact polarizability:  28.893  -0.000  25.878   0.000   0.000  25.878
 Approx polarizability:  33.213   0.000  33.360  -0.000   0.000  33.360

 Summary of Natural Population Analysis:

                                     Natural Population
             Natural    ---------------------------------------------
  Atom No    Charge        Core      Valence    Rydberg      Total
 --------------------------------------------------------------------
    C  1   -0.61422      1.99999     4.60552    0.00871     6.61422
    C  2   -0.61422      1.99999     4.60552    0.00871     6.61422
    H  3    0.20474      0.00000     0.79406    0.00120     0.79526
    H  4    0.20474      0.00000     0.79406    0.00120     0.79526
    H  5    0.20474      0.00000     0.79406    0.00120     0.79526
    H  6    0.20474      0.00000     0.79406    0.00120     0.79526
    H  7    0.20474      0.00000     0.79406    0.00120     0.79526
    H  8    0.20474      0.00000     0.79406    0.00120     0.79526
 ====================================================================
 * Total *  0.00000      3.99998    13.97538    0.02463    18.00000

                      1                      2                      3
                      A                      A                      A
 Frequencies --    308.5036               821.6278               821.6681
 Red. masses --      1.0078                 1.0589                 1.0589
 Frc consts  --      0.0565                 0.4212                 0.4212
 IR Inten    --      0.0000                 4.6665                 4.6671

                      4                      5                      6
                      A                      A                      A
 Frequencies --   1025.4143              1216.5970              1216.6119
 Red. masses --      3.0964                 1.4778                 1.4778
 Frc consts  --      1.9183                 1.2888                 1.2888
 IR Inten    --      0.0000                 0.0000                 0.0000

                      7                      8                      9
                      A                      A                      A
 Frequencies --   1398.7061              1417.4963              1495.4809
 Red. masses --      1.1978                 1.2807                 1.0160
 Frc consts  --      1.3807                 1.5161                 1.3387
 IR Inten    --      2.4752                 0.0000                 0.0000

                     10                     11                     12
                      A                      A                      A
 Frequencies --   1495.5102              1496.7770              1496.8153
 Red. masses --      1.0160                 1.0610                 1.0610
 Frc consts  --      1.3388                 1.4005                 1.4006
 IR Inten    --      0.0000                11.7840                11.7841

                     13                     14                     15
                      A                      A                      A
 Frequencies --   3049.3137              3050.1689              3105.9403
 Red. masses --      1.0373                 1.0345                 1.1008
 Frc consts  --      5.6829                 5.6703                 6.2569
 IR Inten    --      0.0000                57.0612                 0.0000

                     16                     17                     18
                      A                      A                      A
 Frequencies --   3105.9518              3131.3164              3131.3270
 Red. masses --      1.1008                 1.1026                 1.1026
 Frc consts  --      6.2569                 6.3699                 6.3699
 IR Inten    --      0.0000                56.2343                56.2335

 - Thermochemistry -
 -------------------
 Temperature   298.150 Kelvin.  Pressure   1.00000 Atm.
 Atom     1 has atomic number  6 and mass  12.00000

 Molecular mass:    30.04695 amu.
 Principal axes and moments of inertia in atomic units:
                           1         2         3
     Eigenvalues --    22.34390  89.57771  89.57774
           X            1.00000   0.00000   0.00000
           Y           -0.00000   1.00000  -0.00000
           Z           -0.00000   0.00000   1.00000
 This molecule is an asymmetric top.
 Rotational symmetry number  1.
 Rotational temperatures (Kelvin)      3.87640     0.96691     0.96691
 Rotational constants (GHZ):          80.77109    20.14721    20.14721
 Zero-point vibrational energy     196099.2 (Joules/Mol)
                                   46.86883 (Kcal/Mol)
 Warning -- explicit consideration of   1 degrees of freedom as
           vibrations may cause significant error
 Vibrational temperatures:    443.87  1182.14  1182.20  1475.34  1750.41
          (Kelvin)           1750.43  2012.43  2039.46  2151.66  2151.71
                             2153.53  2153.58  4387.28  4388.51  4468.76
                             4468.77  4505.27  4505.28

 Zero-point correction=                           0.074690 (Hartree/Particle)
 Thermal correction to Energy=                    0.078176
 Thermal correction to Enthalpy=                  0.079121
 Thermal correction to Gibbs Free Energy=         0.051586
 Sum of electronic and zero-point Energies=            -79.675494
 Sum of electronic and thermal Energies=               -79.672008
 Sum of electronic and thermal Enthalpies=             -79.671063
 Sum of electronic and thermal Free Energies=          -79.698598

                     E (Thermal)             CV                S
                      KCal/Mol        Cal/Mol-Kelvin    Cal/Mol-Kelvin
 Total                   49.056             10.100             57.952
 Electronic               0.000              0.000              0.000
 Translational            0.889              2.981             36.134
 Rotational               0.889              2.981             19.822
 Vibrational             47.279              4.138              1.995
 Vibration     1          0.698              1.658              1.370

 Optimization completed.
    -- Stationary point found.
 Normal termination of Gaussian 16 at Tue Oct 25 22:28:44 2022.
