 Gaussian 16, Revision B.01,
 Gaussian 16:  ES64L-G16RevB.01 20-Dec-2017

 -----------------------------------------
 #p PBE1PBE/Def2TZVP Freq Opt pop=nbo6read
 -----------------------------------------

 ----------------------
 1_SiLi-0000 E=0.000000
 ----------------------
 Symbolic Z-matrix:
 Charge =  0 Multiplicity = 1

 SCF Done:  E(RPBE1PBE) =  -78.5115281643     A.U. after    8 cycles
 SCF Done:  E(RPBE1PBE) =  -78.5121358561     A.U. after    8 cycles
 SCF Done:  E(RPBE1PBE) =  -78.5122045974     A.U. after    6 cycles
 Optimization completed.
    -- Stationary point found.
 Normal termination of Gaussian 16 at Tue Oct 25 22:28:25 2022.

 ----------------------------------------------------------------------
 #P Geom=AllCheck Guess=TCheck SCRF=Check GenChk RPBE1PBE/def2TZVP Freq
 ----------------------------------------------------------------------

 Structure from the checkpoint file:  "/home/oyanez/Gaussian/coms/Gau-134860.chk"
 ----------------------
 1_SiLi-0000 E=0.000000
 ----------------------
 Charge =  0 Multiplicity = 1

                         Standard orientation:
 ---------------------------------------------------------------------
 Center     Atomic      Atomic             Coordinates (Angstroms)
 Number     Number       Type             X           Y           Z
 ---------------------------------------------------------------------
      1          6           0       -0.661584    0.000000   -0.000006
      2          6           0        0.661584    0.000000   -0.000006
      3          1           0       -1.230458    0.923122    0.000017
      4          1           0       -1.230461   -0.923123    0.000017
      5          1           0        1.230459    0.923122    0.000018
      6          1           0        1.230460   -0.923123    0.000018
 ---------------------------------------------------------------------

 SCF Done:  E(RPBE1PBE) =  -78.5122045974     A.U. after    1 cycles

 The electronic state is 1-A.
 Alpha  occ. eigenvalues --  -10.22188 -10.22088  -0.78687  -0.59793  -0.48587
 Alpha  occ. eigenvalues --   -0.43545  -0.36658  -0.29044
 Alpha virt. eigenvalues --    0.00512   0.07824   0.10073   0.10340   0.16391
 Alpha virt. eigenvalues --    0.20275   0.22221   0.23065   0.23218   0.28091
 Alpha virt. eigenvalues --    0.32438   0.35385   0.42973   0.47100   0.47274

 Mulliken charges:
               1
     1  C   -0.254684
     2  C   -0.254683
     3  H    0.127342
     4  H    0.127342
     5  H    0.127342
     6  H    0.127342
 Sum of Mulliken charges =  -0.00000

 Dipole moment (field-independent basis, Debye):
    X=              0.0000    Y=              0.0000    Z=              0.0001  Tot=              0.0001
 Quadrupole moment (field-independent basis, Debye-Ang):
   XX=            -12.2073   YY=            -12.2221   ZZ=            -15.6470
   XY=              0.0000   XZ=              0.0000   YZ=              0.0000

  Exact polarizability:  34.377  -0.000  22.672  -0.000  -0.000  17.369
 Approx polarizability:  48.664  -0.000  28.268  -0.000  -0.000  22.395

 Summary of Natural Population Analysis:

                                     Natural Population
             Natural    ---------------------------------------------
  Atom No    Charge        Core      Valence    Rydberg      Total
 --------------------------------------------------------------------
    C  1   -0.39233      1.99999     4.37482    0.01752     6.39233
    C  2   -0.39233      1.99999     4.37482    0.01752     6.39233
    H  3    0.19617      0.00000     0.80231    0.00152     0.80383
    H  4    0.19617      0.00000     0.80231    0.00152     0.80383
    H  5    0.19617      0.00000     0.80231    0.00152     0.80383
    H  6    0.19617      0.00000     0.80231    0.00152     0.80383
 ====================================================================
 * Total *  0.00000      3.99998    11.95889    0.04112    16.00000

                      1                      2                      3
                      A                      A                      A
 Frequencies --    826.3962               977.7543               983.0469
 Red. masses --      1.0424                 1.1607                 1.5193
 Frc consts  --      0.4194                 0.6538                 0.8650
 IR Inten    --      0.3796               104.0301                 0.0000

                      4                      5                      6
                      A                      A                      A
 Frequencies --   1066.2645              1238.5290              1381.1596
 Red. masses --      1.0078                 1.5274                 1.1784
 Frc consts  --      0.6751                 1.3805                 1.3245
 IR Inten    --      0.0000                 0.0000                 0.0000

                      7                      8                      9
                      A                      A                      A
 Frequencies --   1465.7357              1703.7951              3149.4705
 Red. masses --      1.1121                 3.4701                 1.0476
 Frc consts  --      1.4077                 5.9351                 6.1223
 IR Inten    --     11.2249                 0.0000                14.2939

                     10                     11                     12
                      A                      A                      A
 Frequencies --   3164.8851              3226.4291              3254.1919
 Red. masses --      1.0741                 1.1145                 1.1180
 Frc consts  --      6.3387                 6.8359                 6.9754
 IR Inten    --      0.0000                 0.0000                16.7155

 - Thermochemistry -
 -------------------
 Temperature   298.150 Kelvin.  Pressure   1.00000 Atm.
 Atom     1 has atomic number  6 and mass  12.00000

 Molecular mass:    28.03130 amu.
 Principal axes and moments of inertia in atomic units:
                           1         2         3
     Eigenvalues --    12.26766  59.30878  71.57643
           X            1.00000  -0.00000   0.00000
           Y            0.00000   1.00000   0.00000
           Z           -0.00000  -0.00000   1.00000
 This molecule is an asymmetric top.
 Rotational symmetry number  1.
 Rotational temperatures (Kelvin)      7.06035     1.46039     1.21009
 Rotational constants (GHZ):         147.11378    30.42958    25.21418
 Zero-point vibrational energy     134207.0 (Joules/Mol)
                                   32.07624 (Kcal/Mol)
 Vibrational temperatures:   1189.00  1406.77  1414.39  1534.12  1781.97
          (Kelvin)           1987.18  2108.87  2451.38  4531.39  4553.56
                             4642.11  4682.06

 Zero-point correction=                           0.051117 (Hartree/Particle)
 Thermal correction to Energy=                    0.054159
 Thermal correction to Enthalpy=                  0.055103
 Thermal correction to Gibbs Free Energy=         0.028944
 Sum of electronic and zero-point Energies=            -78.461088
 Sum of electronic and thermal Energies=               -78.458046
 Sum of electronic and thermal Enthalpies=             -78.457102
 Sum of electronic and thermal Free Energies=          -78.483260

                     E (Thermal)             CV                S
                      KCal/Mol        Cal/Mol-Kelvin    Cal/Mol-Kelvin
 Total                   33.985              8.093             55.055
 Electronic               0.000              0.000              0.000
 Translational            0.889              2.981             35.927
 Rotational               0.889              2.981             18.594
 Vibrational             32.208              2.131              0.534

 Optimization completed.
    -- Stationary point found.
 Normal termination of Gaussian 16 at Tue Oct 25 22:28:40 2022.
